# Cache-Control headers for EXPER IMMO
# Forces browsers to always check for new JS files

/js/*
  Cache-Control: no-cache, must-revalidate

/sw.js
  Cache-Control: no-cache, no-store, must-revalidate

/*.html
  Cache-Control: no-cache, must-revalidate
